
  ___ ___ ___ _ _ _
 |   |   |_  | | | |
 | | | | | . | | | |
 |__ |  _|___|_____|  25.7.0
 |___|_|

User:   toriyama@midway3-0415.rcc.local
Date:   Tue Mar 10 13:27:03 2026
Arch:   x86_64
Pid:    258783
CWD:    /scratch/midway3/toriyama/hBN/ZFS_Monolayer/GPAW/NV_Diamond/MPI_GPAW/For_PyZFS_Tutorial
Python: 3.12.12
gpaw:   /scratch/midway3/toriyama/miniconda3/envs/gpaw/lib/python3.12/site-packages/gpaw
_gpaw:  /scratch/midway3/toriyama/miniconda3/envs/gpaw/lib/python3.12/site-packages/
        _gpaw.cpython-312-x86_64-linux-gnu.so
ase:    /scratch/midway3/toriyama/miniconda3/envs/gpaw/lib/python3.12/site-packages/ase (version 3.26.0)
numpy:  /scratch/midway3/toriyama/miniconda3/envs/gpaw/lib/python3.12/site-packages/numpy (version 2.3.5)
scipy:  /scratch/midway3/toriyama/miniconda3/envs/gpaw/lib/python3.12/site-packages/scipy (version 1.16.3)
libxc:  2.x.y
units:  Angstrom and eV
cores: 40
OpenMP: False
OMP_NUM_THREADS: 1

Input parameters:
  charge: -1
  mode: {ecut: 300.0,
         name: pw}
  xc: PBE

System changes: positions, numbers, cell, pbc, initial_charges, initial_magmoms

Initialize ...

species:
  N:
    name: Nitrogen
    id: f7500608b86eaa90eef8b1d9a670dc53
    Z: 7.0
    valence: 5
    core: 2
    charge: 0.0
    file: /scratch/midway3/toriyama/miniconda3/envs/gpaw/lib/python3.12/site-packages/gpaw_data/setups/N.PBE.gz
    compensation charges: {type: gauss,
                           rc: 0.18,
                           lmax: 2}
    cutoffs: {filter: 1.11,
              core: 0.96}
    projectors:
      #              energy  rcut
      - 2s(2.00)   -18.583   0.603
      - 2p(3.00)    -7.089   0.529
      -  s           8.629   0.603
      -  p          20.123   0.529
      -  d           0.000   0.577

    # Using partial waves for N as LCAO basis

  C:
    name: Carbon
    id: 4aa54d4b901d75f77cc0ea3eec22967b
    Z: 6.0
    valence: 4
    core: 2
    charge: 0.0
    file: /scratch/midway3/toriyama/miniconda3/envs/gpaw/lib/python3.12/site-packages/gpaw_data/setups/C.PBE.gz
    compensation charges: {type: gauss,
                           rc: 0.20,
                           lmax: 2}
    cutoffs: {filter: 1.14,
              core: 1.14}
    projectors:
      #              energy  rcut
      - 2s(2.00)   -13.751   0.635
      - 2p(2.00)    -5.284   0.635
      -  s          13.461   0.635
      -  p          21.927   0.635
      -  d           0.000   0.635

    # Using partial waves for C as LCAO basis

Reference energy: -65194.664664  # eV

Spin-polarized calculation.
Initial magnetic moment: 63.000000

Convergence criteria:
 Maximum [total energy] change in last 3 cyles: 0.0005 eV / valence electron
 Maximum integral of absolute [dens]ity change: 0.0001 electrons / valence electron
 Maximum integral of absolute [eigenst]ate change: 4e-08 eV^2 / valence electron
 Maximum number of scf [iter]ations: 333
 (Square brackets indicate name in SCF output, whereas a 'c' in
 the SCF output indicates the quantity has converged.)

Symmetries present (total): 6

  ( 1  0  0)  ( 1  0  0)  ( 0  1  0)  ( 0  1  0)  ( 0  0  1)  ( 0  0  1)
  ( 0  1  0)  ( 0  0  1)  ( 1  0  0)  ( 0  0  1)  ( 1  0  0)  ( 0  1  0)
  ( 0  0  1)  ( 0  1  0)  ( 0  0  1)  ( 1  0  0)  ( 0  1  0)  ( 1  0  0)

1 k-point (Gamma)
1 k-point in the irreducible part of the Brillouin zone
       k-points in crystal coordinates                weights
   0:     0.00000000    0.00000000    0.00000000          1/1

Wave functions: Plane wave expansion
  Cutoff energy: 300.000 eV
  Number of coefficients: 4337 (reduced to 2169)
  Pulay-stress correction: 0.000000 eV/Ang^3 (de/decut=0.000000)
  Using Numpy's FFT
  ScaLapack parameters: grid=1x1, blocksize=None
  Wavefunction extrapolation:
    Improved wavefunction reuse through dual PAW basis

Occupation numbers: Fermi-Dirac:
  width: 0.1000  # eV


Eigensolver
   Davidson(niter=2)

Densities:
  Coarse grid: 30*30*30 grid
  Fine grid: 60*60*60 grid
  Total Charge: -1.000000

Density mixing:
  Method: difference
  Backend: pulay
  Linear mixing parameter: 0.05
  old densities: 5
  Damping of long wavelength oscillations: 50

Hamiltonian:
  XC and Coulomb potentials evaluated on a 60*60*60 grid
  Using the PBE Exchange-Correlation functional
  External potential:
    NoExternalPotential
Poisson solver:
  Uniform background charge: -1.000 electrons


XC parameters: PBE with 2 nearest neighbor stencil

Memory estimate:
  Process memory now: 219.50 MiB
  Calculator: 4.55 MiB
    Density: 0.40 MiB
      Arrays: 0.18 MiB
      Localized functions: 0.14 MiB
      Mixer: 0.08 MiB
    Hamiltonian: 0.14 MiB
      Arrays: 0.13 MiB
      XC: 0.00 MiB
      Poisson: 0.00 MiB
      vbar: 0.00 MiB
    Wavefunctions: 4.02 MiB
      Arrays psit_nG: 0.33 MiB
      Eigensolver: 3.07 MiB
      Projections: 0.06 MiB
      Projectors: 0.01 MiB
      PW-descriptor: 0.54 MiB

Total number of cores used: 40
Domain decomposition: 5 x 4 x 2

Number of atoms: 63
Number of atomic orbitals: 252
Number of bands in calculation: 195
Number of valence electrons: 254
Bands to converge: occupied

... initialized

Initializing position-dependent things.

Density initialized from atomic densities
Creating initial wave functions:
  195 bands from LCAO basis set

     .-----------------.
    /|                 |
   / | C        C      |
  / C|    C  C     C   |
 *   C C   C  C C   C  |
 |C  |C C  C   C C     |
 | C C C C  C C C C    |
 |  C|C   C  C C   C   |
 |  CC     C CC     C  |
 C   .CCC-C----CCC-----.
 |C /   CC C     CC   /
 | / C      CCC      /
 |/   C        C    /
 N--------C--------*

Atomic positions and initial magnetic moments

Positions:
   0 N      0.000000    0.000000    0.000000    ( 0.0000,  0.0000,  1.0000)
   1 C      0.000000    1.785000    1.785000    ( 0.0000,  0.0000,  1.0000)
   2 C      0.892500    2.677500    2.677500    ( 0.0000,  0.0000,  1.0000)
   3 C      1.785000    0.000000    1.785000    ( 0.0000,  0.0000,  1.0000)
   4 C      2.677500    0.892500    2.677500    ( 0.0000,  0.0000,  1.0000)
   5 C      1.785000    1.785000    0.000000    ( 0.0000,  0.0000,  1.0000)
   6 C      2.677500    2.677500    0.892500    ( 0.0000,  0.0000,  1.0000)
   7 C      0.000000    0.000000    3.570000    ( 0.0000,  0.0000,  1.0000)
   8 C      0.892500    0.892500    4.462500    ( 0.0000,  0.0000,  1.0000)
   9 C      0.000000    1.785000    5.355000    ( 0.0000,  0.0000,  1.0000)
  10 C      0.892500    2.677500    6.247500    ( 0.0000,  0.0000,  1.0000)
  11 C      1.785000    0.000000    5.355000    ( 0.0000,  0.0000,  1.0000)
  12 C      2.677500    0.892500    6.247500    ( 0.0000,  0.0000,  1.0000)
  13 C      1.785000    1.785000    3.570000    ( 0.0000,  0.0000,  1.0000)
  14 C      2.677500    2.677500    4.462500    ( 0.0000,  0.0000,  1.0000)
  15 C      0.000000    3.570000    0.000000    ( 0.0000,  0.0000,  1.0000)
  16 C      0.892500    4.462500    0.892500    ( 0.0000,  0.0000,  1.0000)
  17 C      0.000000    5.355000    1.785000    ( 0.0000,  0.0000,  1.0000)
  18 C      0.892500    6.247500    2.677500    ( 0.0000,  0.0000,  1.0000)
  19 C      1.785000    3.570000    1.785000    ( 0.0000,  0.0000,  1.0000)
  20 C      2.677500    4.462500    2.677500    ( 0.0000,  0.0000,  1.0000)
  21 C      1.785000    5.355000    0.000000    ( 0.0000,  0.0000,  1.0000)
  22 C      2.677500    6.247500    0.892500    ( 0.0000,  0.0000,  1.0000)
  23 C      0.000000    3.570000    3.570000    ( 0.0000,  0.0000,  1.0000)
  24 C      0.892500    4.462500    4.462500    ( 0.0000,  0.0000,  1.0000)
  25 C      0.000000    5.355000    5.355000    ( 0.0000,  0.0000,  1.0000)
  26 C      0.892500    6.247500    6.247500    ( 0.0000,  0.0000,  1.0000)
  27 C      1.785000    3.570000    5.355000    ( 0.0000,  0.0000,  1.0000)
  28 C      2.677500    4.462500    6.247500    ( 0.0000,  0.0000,  1.0000)
  29 C      1.785000    5.355000    3.570000    ( 0.0000,  0.0000,  1.0000)
  30 C      2.677500    6.247500    4.462500    ( 0.0000,  0.0000,  1.0000)
  31 C      3.570000    0.000000    0.000000    ( 0.0000,  0.0000,  1.0000)
  32 C      4.462500    0.892500    0.892500    ( 0.0000,  0.0000,  1.0000)
  33 C      3.570000    1.785000    1.785000    ( 0.0000,  0.0000,  1.0000)
  34 C      4.462500    2.677500    2.677500    ( 0.0000,  0.0000,  1.0000)
  35 C      5.355000    0.000000    1.785000    ( 0.0000,  0.0000,  1.0000)
  36 C      6.247500    0.892500    2.677500    ( 0.0000,  0.0000,  1.0000)
  37 C      5.355000    1.785000    0.000000    ( 0.0000,  0.0000,  1.0000)
  38 C      6.247500    2.677500    0.892500    ( 0.0000,  0.0000,  1.0000)
  39 C      3.570000    0.000000    3.570000    ( 0.0000,  0.0000,  1.0000)
  40 C      4.462500    0.892500    4.462500    ( 0.0000,  0.0000,  1.0000)
  41 C      3.570000    1.785000    5.355000    ( 0.0000,  0.0000,  1.0000)
  42 C      4.462500    2.677500    6.247500    ( 0.0000,  0.0000,  1.0000)
  43 C      5.355000    0.000000    5.355000    ( 0.0000,  0.0000,  1.0000)
  44 C      6.247500    0.892500    6.247500    ( 0.0000,  0.0000,  1.0000)
  45 C      5.355000    1.785000    3.570000    ( 0.0000,  0.0000,  1.0000)
  46 C      6.247500    2.677500    4.462500    ( 0.0000,  0.0000,  1.0000)
  47 C      3.570000    3.570000    0.000000    ( 0.0000,  0.0000,  1.0000)
  48 C      4.462500    4.462500    0.892500    ( 0.0000,  0.0000,  1.0000)
  49 C      3.570000    5.355000    1.785000    ( 0.0000,  0.0000,  1.0000)
  50 C      4.462500    6.247500    2.677500    ( 0.0000,  0.0000,  1.0000)
  51 C      5.355000    3.570000    1.785000    ( 0.0000,  0.0000,  1.0000)
  52 C      6.247500    4.462500    2.677500    ( 0.0000,  0.0000,  1.0000)
  53 C      5.355000    5.355000    0.000000    ( 0.0000,  0.0000,  1.0000)
  54 C      6.247500    6.247500    0.892500    ( 0.0000,  0.0000,  1.0000)
  55 C      3.570000    3.570000    3.570000    ( 0.0000,  0.0000,  1.0000)
  56 C      4.462500    4.462500    4.462500    ( 0.0000,  0.0000,  1.0000)
  57 C      3.570000    5.355000    5.355000    ( 0.0000,  0.0000,  1.0000)
  58 C      4.462500    6.247500    6.247500    ( 0.0000,  0.0000,  1.0000)
  59 C      5.355000    3.570000    5.355000    ( 0.0000,  0.0000,  1.0000)
  60 C      6.247500    4.462500    6.247500    ( 0.0000,  0.0000,  1.0000)
  61 C      5.355000    5.355000    3.570000    ( 0.0000,  0.0000,  1.0000)
  62 C      6.247500    6.247500    4.462500    ( 0.0000,  0.0000,  1.0000)

Unit cell:
           periodic     x           y           z      points  spacing
  1. axis:    yes    7.140000    0.000000    0.000000    30     0.2380
  2. axis:    yes    0.000000    7.140000    0.000000    30     0.2380
  3. axis:    yes    0.000000    0.000000    7.140000    30     0.2380

  Lengths:   7.140000   7.140000   7.140000
  Angles:   90.000000  90.000000  90.000000

Effective grid spacing dv^(1/3) = 0.2380

     iter     time        total  log10-change:  magmom
                         energy   eigst   dens
iter:   1 13:27:04  -496.999443                   +62.8499
iter:   2 13:27:05  -517.116671   -2.06  -0.83    +20.2549
iter:   3 13:27:05  -508.813581   -1.14  -0.85    +1.9160
iter:   4 13:27:05  -507.878016   -3.11  -1.65    +1.9513
iter:   5 13:27:06  -507.779917   -1.93  -1.64    +1.9849
iter:   6 13:27:06  -507.682383   -2.49  -1.96    +1.9832
iter:   7 13:27:06  -507.556233   -3.00  -1.85    +1.9896
iter:   8 13:27:07  -507.480383   -3.57  -2.21    +1.9924
iter:   9 13:27:07  -507.461610c  -3.68  -2.34    +1.9928
iter:  10 13:27:07  -507.460283c  -5.34  -3.13    +1.9932
iter:  11 13:27:08  -507.460115c  -5.23  -3.29    +1.9935
iter:  12 13:27:08  -507.459818c  -5.43  -3.35    +1.9936
iter:  13 13:27:08  -507.459799c  -7.16  -3.56    +1.9936
iter:  14 13:27:09  -507.459815c  -6.60  -3.58    +1.9936
iter:  15 13:27:09  -507.459891c  -6.11  -3.69    +1.9936
iter:  16 13:27:09  -507.459825c  -6.70  -3.75    +1.9936
iter:  17 13:27:10  -507.459825c  -7.44c -3.85    +1.9936
iter:  18 13:27:10  -507.459846c  -7.22  -3.90    +1.9936
iter:  19 13:27:10  -507.459841c  -7.66c -4.09c   +1.9936

Converged after 19 iterations.

Dipole moment: (1.956873, 1.956873, 1.956873) |e|*Ang

Total magnetic moment: (0.000000, 0.000000, 1.993644)
Local magnetic moments:
   0 N  ( 0.000000,  0.000000,  0.001510)
   1 C  ( 0.000000,  0.000000,  0.222456)
   2 C  ( 0.000000,  0.000000, -0.005875)
   3 C  ( 0.000000,  0.000000,  0.222456)
   4 C  ( 0.000000,  0.000000, -0.005875)
   5 C  ( 0.000000,  0.000000,  0.222456)
   6 C  ( 0.000000,  0.000000, -0.005875)
   7 C  ( 0.000000,  0.000000,  0.004666)
   8 C  ( 0.000000,  0.000000, -0.001176)
   9 C  ( 0.000000,  0.000000,  0.003254)
  10 C  ( 0.000000,  0.000000,  0.002345)
  11 C  ( 0.000000,  0.000000,  0.003254)
  12 C  ( 0.000000,  0.000000,  0.002345)
  13 C  ( 0.000000,  0.000000,  0.004917)
  14 C  ( 0.000000,  0.000000, -0.001166)
  15 C  ( 0.000000,  0.000000,  0.004666)
  16 C  ( 0.000000,  0.000000, -0.001176)
  17 C  ( 0.000000,  0.000000,  0.003254)
  18 C  ( 0.000000,  0.000000,  0.002345)
  19 C  ( 0.000000,  0.000000,  0.004917)
  20 C  ( 0.000000,  0.000000, -0.001166)
  21 C  ( 0.000000,  0.000000,  0.003254)
  22 C  ( 0.000000,  0.000000,  0.002345)
  23 C  ( 0.000000,  0.000000,  0.012042)
  24 C  ( 0.000000,  0.000000,  0.007424)
  25 C  ( 0.000000,  0.000000,  0.002344)
  26 C  ( 0.000000,  0.000000,  0.001436)
  27 C  ( 0.000000,  0.000000,  0.015187)
  28 C  ( 0.000000,  0.000000, -0.000682)
  29 C  ( 0.000000,  0.000000,  0.015187)
  30 C  ( 0.000000,  0.000000, -0.000682)
  31 C  ( 0.000000,  0.000000,  0.004666)
  32 C  ( 0.000000,  0.000000, -0.001176)
  33 C  ( 0.000000,  0.000000,  0.004917)
  34 C  ( 0.000000,  0.000000, -0.001166)
  35 C  ( 0.000000,  0.000000,  0.003254)
  36 C  ( 0.000000,  0.000000,  0.002345)
  37 C  ( 0.000000,  0.000000,  0.003254)
  38 C  ( 0.000000,  0.000000,  0.002345)
  39 C  ( 0.000000,  0.000000,  0.012042)
  40 C  ( 0.000000,  0.000000,  0.007424)
  41 C  ( 0.000000,  0.000000,  0.015187)
  42 C  ( 0.000000,  0.000000, -0.000682)
  43 C  ( 0.000000,  0.000000,  0.002344)
  44 C  ( 0.000000,  0.000000,  0.001436)
  45 C  ( 0.000000,  0.000000,  0.015187)
  46 C  ( 0.000000,  0.000000, -0.000682)
  47 C  ( 0.000000,  0.000000,  0.012042)
  48 C  ( 0.000000,  0.000000,  0.007424)
  49 C  ( 0.000000,  0.000000,  0.015187)
  50 C  ( 0.000000,  0.000000, -0.000682)
  51 C  ( 0.000000,  0.000000,  0.015187)
  52 C  ( 0.000000,  0.000000, -0.000682)
  53 C  ( 0.000000,  0.000000,  0.002344)
  54 C  ( 0.000000,  0.000000,  0.001436)
  55 C  ( 0.000000,  0.000000,  0.000861)
  56 C  ( 0.000000,  0.000000,  0.001029)
  57 C  ( 0.000000,  0.000000,  0.001327)
  58 C  ( 0.000000,  0.000000, -0.000556)
  59 C  ( 0.000000,  0.000000,  0.001327)
  60 C  ( 0.000000,  0.000000, -0.000556)
  61 C  ( 0.000000,  0.000000,  0.001327)
  62 C  ( 0.000000,  0.000000, -0.000556)

Energy contributions relative to reference atoms: (reference = -65194.664664)

Kinetic:       +372.368751
Potential:     -288.518556
External:        +0.000000
XC:            -595.998688
Entropy (-ST):   -0.004743
Local:           +4.691023
SIC:             +0.000000
--------------------------
Free energy:   -507.462212
Extrapolated:  -507.459841

Spin contamination: 0.092515 electrons
                   Up                     Down
 Band  Eigenvalues  Occupancy  Eigenvalues  Occupancy
    0     -9.81305    1.00000     -9.79217    1.00000
    1     -8.11336    1.00000     -8.09980    1.00000
    2     -7.53582    1.00000     -7.51915    1.00000
    3     -7.53582    1.00000     -7.51915    1.00000
    4     -7.44220    1.00000     -7.41395    1.00000
    5     -7.44220    1.00000     -7.41395    1.00000
    6     -7.15675    1.00000     -7.12588    1.00000
    7     -6.17892    1.00000     -6.16441    1.00000
    8     -5.37324    1.00000     -5.35793    1.00000
    9     -5.37324    1.00000     -5.35793    1.00000
   10     -5.33875    1.00000     -5.32459    1.00000
   11     -5.33875    1.00000     -5.32459    1.00000
   12     -5.33218    1.00000     -5.31044    1.00000
   13     -5.27064    1.00000     -5.25101    1.00000
   14     -5.27064    1.00000     -5.25101    1.00000
   15     -5.22298    1.00000     -5.21352    1.00000
   16     -5.07435    1.00000     -5.01508    1.00000
   17     -5.07435    1.00000     -5.01508    1.00000
   18     -4.64689    1.00000     -4.60538    1.00000
   19     -4.25760    1.00000     -4.24251    1.00000
   20     -3.90504    1.00000     -3.85380    1.00000
   21     -3.90504    1.00000     -3.85380    1.00000
   22     -3.27373    1.00000     -3.14889    1.00000
   23     -1.58188    1.00000     -1.56063    1.00000
   24     -1.51404    1.00000     -1.49654    1.00000
   25     -1.51404    1.00000     -1.49654    1.00000
   26     -1.48008    1.00000     -1.45505    1.00000
   27     -1.30746    1.00000     -1.24822    1.00000
   28     -1.00499    1.00000     -0.98862    1.00000
   29     -1.00499    1.00000     -0.98862    1.00000
   30     -0.94927    1.00000     -0.92256    1.00000
   31     -0.94927    1.00000     -0.92256    1.00000
   32     -0.88827    1.00000     -0.86890    1.00000
   33     -0.68020    1.00000     -0.65038    1.00000
   34     -0.33839    1.00000     -0.32621    1.00000
   35     -0.33839    1.00000     -0.32621    1.00000
   36     -0.32769    1.00000     -0.30051    1.00000
   37     -0.27464    1.00000     -0.25647    1.00000
   38     -0.27464    1.00000     -0.25647    1.00000
   39     -0.19978    1.00000     -0.18044    1.00000
   40     -0.18705    1.00000     -0.17073    1.00000
   41     -0.18705    1.00000     -0.17073    1.00000
   42      0.17398    1.00000      0.33750    1.00000
   43      0.17398    1.00000      0.33750    1.00000
   44      1.69408    1.00000      1.82413    1.00000
   45      2.84020    1.00000      2.88055    1.00000
   46      2.97661    1.00000      2.99467    1.00000
   47      2.97661    1.00000      2.99467    1.00000
   48      3.04981    1.00000      3.06103    1.00000
   49      3.04981    1.00000      3.06103    1.00000
   50      3.06824    1.00000      3.08270    1.00000
   51      3.11339    1.00000      3.13436    1.00000
   52      3.11747    1.00000      3.14204    1.00000
   53      3.11747    1.00000      3.14204    1.00000
   54      3.23324    1.00000      3.29858    1.00000
   55      3.23324    1.00000      3.29858    1.00000
   56      3.37728    1.00000      3.39237    1.00000
   57      3.37728    1.00000      3.39237    1.00000
   58      3.43314    1.00000      3.44169    1.00000
   59      3.48405    1.00000      3.49670    1.00000
   60      3.48405    1.00000      3.49670    1.00000
   61      3.51828    1.00000      3.53379    1.00000
   62      3.53678    1.00000      3.57067    1.00000
   63      3.59126    1.00000      3.62307    1.00000
   64      3.59126    1.00000      3.62307    1.00000
   65      3.68062    1.00000      3.69100    1.00000
   66      3.70684    1.00000      3.74110    1.00000
   67      3.70684    1.00000      3.74110    1.00000
   68      4.01503    1.00000      4.08147    1.00000
   69      4.18122    1.00000      4.19684    1.00000
   70      4.18122    1.00000      4.19684    1.00000
   71      4.21677    1.00000      4.24243    1.00000
   72      4.21677    1.00000      4.24243    1.00000
   73      4.22913    1.00000      4.24520    1.00000
   74      4.23475    1.00000      4.25086    1.00000
   75      4.36363    1.00000      4.41652    1.00000
   76      4.36363    1.00000      4.41652    1.00000
   77      4.86643    1.00000      4.92748    1.00000
   78      4.86643    1.00000      4.92748    1.00000
   79      4.88842    1.00000      4.93028    1.00000
   80      5.59631    1.00000      5.61962    1.00000
   81      5.59631    1.00000      5.61962    1.00000
   82      5.65826    1.00000      5.69169    1.00000
   83      5.91981    1.00000      5.99915    1.00000
   84      6.00591    1.00000      6.08855    1.00000
   85      6.00591    1.00000      6.08855    1.00000
   86      6.07333    1.00000      6.23587    1.00000
   87      7.18780    1.00000      7.21069    1.00000
   88      7.19139    1.00000      7.21069    1.00000
   89      7.19139    1.00000      7.22354    1.00000
   90      7.30001    1.00000      7.34229    1.00000
   91      7.30001    1.00000      7.34229    1.00000
   92      7.65077    1.00000      7.67616    1.00000
   93      7.65077    1.00000      7.67616    1.00000
   94      7.75008    1.00000      7.75969    1.00000
   95      7.75008    1.00000      7.75969    1.00000
   96      7.76620    1.00000      7.78095    1.00000
   97      7.80463    1.00000      7.83163    1.00000
   98      7.89227    1.00000      7.93781    1.00000
   99      7.89227    1.00000      7.93781    1.00000
  100      7.92131    1.00000      7.96638    1.00000
  101      8.17138    1.00000      8.20180    1.00000
  102      8.17138    1.00000      8.20180    1.00000
  103      8.21934    1.00000      8.26299    1.00000
  104      8.72893    1.00000      8.76081    1.00000
  105      8.72893    1.00000      8.76081    1.00000
  106      8.74533    1.00000      8.76332    1.00000
  107      8.76477    1.00000      8.77260    1.00000
  108      8.76629    1.00000      8.77976    1.00000
  109      8.76629    1.00000      8.77976    1.00000
  110      8.82311    1.00000      8.84501    1.00000
  111      8.82311    1.00000      8.84501    1.00000
  112      8.83158    1.00000      8.85808    1.00000
  113      8.83158    1.00000      8.85808    1.00000
  114      8.84733    1.00000      8.85810    1.00000
  115      8.84809    1.00000      8.87819    1.00000
  116      9.01268    1.00000      9.04555    1.00000
  117      9.01268    1.00000      9.04555    1.00000
  118      9.21050    1.00000      9.31267    1.00000
  119      9.22409    1.00000      9.34156    1.00000
  120      9.26094    1.00000      9.34156    1.00000
  121      9.26094    1.00000      9.69818    1.00000
  122     11.14702    1.00000     11.36619    1.00000
  123     11.37353    1.00000     11.51332    1.00000
  124     11.37353    1.00000     11.51332    1.00000
  125     12.81816    1.00000     13.18563    0.99999
  126     13.75717    0.99841     15.04562    0.00159
  127     13.75717    0.99841     15.04562    0.00159
  128     15.93865    0.00000     15.97335    0.00000
  129     16.25319    0.00000     16.26764    0.00000
  130     16.25319    0.00000     16.26764    0.00000
  131     16.33866    0.00000     16.35510    0.00000
  132     16.34027    0.00000     16.37053    0.00000
  133     16.34027    0.00000     16.37053    0.00000
  134     16.52857    0.00000     16.55523    0.00000
  135     16.66618    0.00000     16.69612    0.00000
  136     16.66618    0.00000     16.69612    0.00000
  137     16.76764    0.00000     16.81106    0.00000
  138     16.76764    0.00000     16.81106    0.00000
  139     17.05279    0.00000     17.14390    0.00000
  140     17.70262    0.00000     17.75206    0.00000
  141     17.70262    0.00000     17.75206    0.00000
  142     17.77481    0.00000     17.82341    0.00000
  143     19.19576    0.00000     19.24696    0.00000
  144     19.74073    0.00000     19.76090    0.00000
  145     19.74073    0.00000     19.76090    0.00000
  146     19.76776    0.00000     19.77991    0.00000
  147     19.76925    0.00000     19.79053    0.00000
  148     19.76925    0.00000     19.79053    0.00000
  149     19.81825    0.00000     19.84128    0.00000
  150     19.81825    0.00000     19.84128    0.00000
  151     19.86267    0.00000     19.87157    0.00000
  152     19.87903    0.00000     19.90076    0.00000
  153     19.87903    0.00000     19.90076    0.00000
  154     19.94525    0.00000     19.96283    0.00000
  155     20.17503    0.00000     20.19365    0.00000
  156     20.25751    0.00000     20.27835    0.00000
  157     20.25751    0.00000     20.27835    0.00000
  158     20.36085    0.00000     20.38383    0.00000
  159     20.45023    0.00000     20.49672    0.00000
  160     20.45023    0.00000     20.49672    0.00000
  161     20.52935    0.00000     20.59143    0.00000
  162     20.52935    0.00000     20.59143    0.00000
  163     20.72169    0.00000     20.76589    0.00000
  164     20.72169    0.00000     20.76589    0.00000
  165     20.73424    0.00000     20.77677    0.00000
  166     21.18861    0.00000     21.23710    0.00000
  167     21.69467    0.00000     21.72128    0.00000
  168     21.77956    0.00000     21.80207    0.00000
  169     21.77956    0.00000     21.80207    0.00000
  170     21.94104    0.00000     21.95811    0.00000
  171     21.98876    0.00000     22.00397    0.00000
  172     21.98876    0.00000     22.00397    0.00000
  173     22.00069    0.00000     22.01810    0.00000
  174     22.00602    0.00000     22.03993    0.00000
  175     22.00602    0.00000     22.03993    0.00000
  176     22.02015    0.00000     22.06018    0.00000
  177     22.02015    0.00000     22.06018    0.00000
  178     22.06385    0.00000     22.09396    0.00000
  179     22.08596    0.00000     22.11184    0.00000
  180     22.08596    0.00000     22.11184    0.00000
  181     22.19506    0.00000     22.21950    0.00000
  182     22.19506    0.00000     22.21950    0.00000
  183     22.23199    0.00000     22.25991    0.00000
  184     22.33514    0.00000     22.36623    0.00000
  185     22.40859    0.00000     22.45362    0.00000
  186     22.40859    0.00000     22.45362    0.00000
  187     22.54867    0.00000     22.60210    0.00000
  188     22.67649    0.00000     22.76382    0.00000
  189     22.67649    0.00000     22.76382    0.00000
  190     22.91218    0.00000     22.98661    0.00000
  191     22.91218    0.00000     22.98661    0.00000
  192     23.20085    0.00000     23.22455    0.00000
  193     23.20085    0.00000     23.26185    0.00000
  194     23.30136    0.00000     23.26185    0.00000

Fermi level: 14.40148

Gap: 1.288 eV
Transition (v -> c):
  (s=0, k=0, n=127, [0.00, 0.00, 0.00]) -> (s=1, k=0, n=126, [0.00, 0.00, 0.00])
No difference between direct/indirect transitions

Forces in eV/Ang:
  0 N    -1.20184   -1.20184   -1.20184
  1 C    -1.18441    1.88105    1.88105
  2 C    -0.44154   -0.75437   -0.75437
  3 C     1.88105   -1.18441    1.88105
  4 C    -0.75437   -0.44154   -0.75437
  5 C     1.88105    1.88105   -1.18441
  6 C    -0.75437   -0.75437   -0.44154
  7 C    -0.08435   -0.08435    0.00247
  8 C     0.00940    0.00940   -0.07434
  9 C     0.29651   -0.11919    0.25060
 10 C     0.14526   -0.80081    0.82234
 11 C    -0.11919    0.29651    0.25060
 12 C    -0.80081    0.14526    0.82234
 13 C     0.07786    0.07786   -0.02644
 14 C    -0.07684   -0.07684    0.06878
 15 C    -0.08435    0.00247   -0.08435
 16 C     0.00940   -0.07434    0.00940
 17 C     0.29651    0.25060   -0.11919
 18 C     0.14526    0.82234   -0.80081
 19 C     0.07786   -0.02644    0.07786
 20 C    -0.07684    0.06878   -0.07684
 21 C    -0.11919    0.25060    0.29651
 22 C    -0.80081    0.82234    0.14526
 23 C     0.19381    0.20411    0.20411
 24 C    -0.04466    0.00189    0.00189
 25 C     0.16433   -0.10535   -0.10535
 26 C    -1.15840    0.19883    0.19883
 27 C     0.03173    0.16325   -0.15334
 28 C    -0.12454   -0.06791   -0.10418
 29 C     0.03173   -0.15334    0.16325
 30 C    -0.12454   -0.10418   -0.06791
 31 C     0.00247   -0.08435   -0.08435
 32 C    -0.07434    0.00940    0.00940
 33 C    -0.02644    0.07786    0.07786
 34 C     0.06878   -0.07684   -0.07684
 35 C     0.25060    0.29651   -0.11919
 36 C     0.82234    0.14526   -0.80081
 37 C     0.25060   -0.11919    0.29651
 38 C     0.82234   -0.80081    0.14526
 39 C     0.20411    0.19381    0.20411
 40 C     0.00189   -0.04466    0.00189
 41 C     0.16325    0.03173   -0.15334
 42 C    -0.06791   -0.12454   -0.10418
 43 C    -0.10535    0.16433   -0.10535
 44 C     0.19883   -1.15840    0.19883
 45 C    -0.15334    0.03173    0.16325
 46 C    -0.10418   -0.12454   -0.06791
 47 C     0.20411    0.20411    0.19381
 48 C     0.00189    0.00189   -0.04466
 49 C     0.16325   -0.15334    0.03173
 50 C    -0.06791   -0.10418   -0.12454
 51 C    -0.15334    0.16325    0.03173
 52 C    -0.10418   -0.06791   -0.12454
 53 C    -0.10535   -0.10535    0.16433
 54 C     0.19883    0.19883   -1.15840
 55 C    -0.01031   -0.01031   -0.01031
 56 C    -0.02671   -0.02671   -0.02671
 57 C     0.02364    0.04677    0.04677
 58 C     0.07198    0.07067    0.07067
 59 C     0.04677    0.02364    0.04677
 60 C     0.07067    0.07198    0.07067
 61 C     0.04677    0.04677    0.02364
 62 C     0.07067    0.07067    0.07198

Writing to NC62.gpw (mode='all')

Timing:                              incl.     excl.
-----------------------------------------------------------
Forces:                              0.082     0.082   1.1% |
Hamiltonian:                         0.074     0.003   0.0% |
 Atomic:                             0.023     0.000   0.0% |
  XC Correction:                     0.023     0.023   0.3% |
 Calculate atomic Hamiltonians:      0.006     0.006   0.1% |
 Communicate:                        0.024     0.024   0.3% |
 Initialize Hamiltonian:             0.000     0.000   0.0% |
 Poisson:                            0.000     0.000   0.0% |
 XC 3D grid:                         0.018     0.018   0.2% |
LCAO initialization:                 0.830     0.018   0.2% |
 LCAO eigensolver:                   0.136     0.000   0.0% |
  Calculate projections:             0.000     0.000   0.0% |
  DenseAtomicCorrection:             0.001     0.001   0.0% |
  Distribute overlap matrix:         0.007     0.007   0.1% |
  Orbital Layouts:                   0.017     0.017   0.2% |
  Potential matrix:                  0.110     0.110   1.4% ||
 LCAO to grid:                       0.548     0.548   7.1% |--|
 Set positions (LCAO WFS):           0.129     0.021   0.3% |
  Basic WFS set positions:           0.005     0.005   0.1% |
  Basis functions set positions:     0.000     0.000   0.0% |
  P tci:                             0.010     0.010   0.1% |
  ST tci:                            0.020     0.020   0.3% |
  mktci:                             0.074     0.074   1.0% |
PWDescriptor:                        0.001     0.001   0.0% |
SCF-cycle:                           6.265     0.020   0.3% |
 Davidson:                           4.326     0.856  11.1% |---|
  Apply H:                           0.215     0.212   2.7% ||
   HMM T:                            0.004     0.004   0.0% |
  Subspace diag:                     0.836     0.003   0.0% |
   calc_h_matrix:                    0.262     0.043   0.6% |
    Apply H:                         0.220     0.216   2.8% ||
     HMM T:                          0.004     0.004   0.1% |
   diagonalize:                      0.547     0.547   7.1% |--|
   rotate_psi:                       0.023     0.023   0.3% |
  calc. matrices:                    0.719     0.278   3.6% ||
   Apply H:                          0.441     0.432   5.6% |-|
    HMM T:                           0.009     0.009   0.1% |
  diagonalize:                       1.627     1.627  21.1% |-------|
  rotate_psi:                        0.071     0.071   0.9% |
 Density:                            0.710     0.000   0.0% |
  Atomic density matrices:           0.083     0.083   1.1% |
  Mix:                               0.344     0.344   4.5% |-|
  Multipole moments:                 0.002     0.002   0.0% |
  Pseudo density:                    0.281     0.118   1.5% ||
   Symmetrize density:               0.164     0.164   2.1% ||
 Hamiltonian:                        1.192     0.023   0.3% |
  Atomic:                            0.412     0.006   0.1% |
   XC Correction:                    0.406     0.406   5.3% |-|
  Calculate atomic Hamiltonians:     0.109     0.109   1.4% ||
  Communicate:                       0.412     0.412   5.3% |-|
  Poisson:                           0.001     0.001   0.0% |
  XC 3D grid:                        0.235     0.235   3.0% ||
 Orthonormalize:                     0.016     0.000   0.0% |
  calc_s_matrix:                     0.002     0.002   0.0% |
  inverse-cholesky:                  0.003     0.003   0.0% |
  projections:                       0.010     0.010   0.1% |
  rotate_psi_s:                      0.001     0.001   0.0% |
Set symmetry:                        0.001     0.001   0.0% |
Other:                               0.462     0.462   6.0% |-|
-----------------------------------------------------------
Total:                                         7.715 100.0%

Memory usage: 335.22 MiB
Date: Tue Mar 10 13:27:11 2026
