
  ___ ___ ___ _ _ _
 |   |   |_  | | | |
 | | | | | . | | | |
 |__ |  _|___|_____|  25.7.0
 |___|_|

User:   toriyama@midway3-0239.rcc.local
Date:   Tue Mar 10 13:25:44 2026
Arch:   x86_64
Pid:    2297830
CWD:    /scratch/midway3/toriyama/hBN/ZFS_Monolayer/GPAW/Biradical/For_Tutorial
Python: 3.12.12
gpaw:   /scratch/midway3/toriyama/miniconda3/envs/gpaw/lib/python3.12/site-packages/gpaw
_gpaw:  /scratch/midway3/toriyama/miniconda3/envs/gpaw/lib/python3.12/site-packages/
        _gpaw.cpython-312-x86_64-linux-gnu.so
ase:    /scratch/midway3/toriyama/miniconda3/envs/gpaw/lib/python3.12/site-packages/ase (version 3.26.0)
numpy:  /scratch/midway3/toriyama/miniconda3/envs/gpaw/lib/python3.12/site-packages/numpy (version 2.3.5)
scipy:  /scratch/midway3/toriyama/miniconda3/envs/gpaw/lib/python3.12/site-packages/scipy (version 1.16.3)
libxc:  2.x.y
units:  Angstrom and eV
cores: 40
OpenMP: False
OMP_NUM_THREADS: 1

Input parameters:
  mode: {ecut: 300.0,
         name: pw}
  xc: PBE

System changes: positions, numbers, cell, pbc, initial_charges, initial_magmoms

Initialize ...

species:
  C:
    name: Carbon
    id: 4aa54d4b901d75f77cc0ea3eec22967b
    Z: 6.0
    valence: 4
    core: 2
    charge: 0.0
    file: /scratch/midway3/toriyama/miniconda3/envs/gpaw/lib/python3.12/site-packages/gpaw_data/setups/C.PBE.gz
    compensation charges: {type: gauss,
                           rc: 0.20,
                           lmax: 2}
    cutoffs: {filter: 1.14,
              core: 1.14}
    projectors:
      #              energy  rcut
      - 2s(2.00)   -13.751   0.635
      - 2p(2.00)    -5.284   0.635
      -  s          13.461   0.635
      -  p          21.927   0.635
      -  d           0.000   0.635

    # Using partial waves for C as LCAO basis

  H:
    name: Hydrogen
    id: d65de229564ff8ea4db303e23b6d1ecf
    Z: 1.0
    valence: 1
    core: 0
    charge: 0.0
    file: /scratch/midway3/toriyama/miniconda3/envs/gpaw/lib/python3.12/site-packages/gpaw_data/setups/H.PBE.gz
    compensation charges: {type: gauss,
                           rc: 0.15,
                           lmax: 2}
    cutoffs: {filter: 0.85,
              core: 0.53}
    projectors:
      #              energy  rcut
      - 1s(1.00)    -6.494   0.476
      -  s          20.717   0.476
      -  p           0.000   0.476

    # Using partial waves for H as LCAO basis

Reference energy: -3157.825320  # eV

Spin-polarized calculation.
Initial magnetic moment: 2.000000

Convergence criteria:
 Maximum [total energy] change in last 3 cyles: 0.0005 eV / valence electron
 Maximum integral of absolute [dens]ity change: 0.0001 electrons / valence electron
 Maximum integral of absolute [eigenst]ate change: 4e-08 eV^2 / valence electron
 Maximum number of scf [iter]ations: 333
 (Square brackets indicate name in SCF output, whereas a 'c' in
 the SCF output indicates the quantity has converged.)

Symmetries present (total): 4

  ( 1  0  0)  ( 1  0  0)  (-1  0  0)  (-1  0  0)
  ( 0  1  0)  ( 0 -1  0)  ( 0  1  0)  ( 0 -1  0)
  ( 0  0  1)  ( 0  0  1)  ( 0  0  1)  ( 0  0  1)

1 k-point (Gamma)
1 k-point in the irreducible part of the Brillouin zone
       k-points in crystal coordinates                weights
   0:     0.00000000    0.00000000    0.00000000          1/1

Wave functions: Plane wave expansion
  Cutoff energy: 300.000 eV
  Number of coefficients: 25479 (reduced to 12740)
  Pulay-stress correction: 0.000000 eV/Ang^3 (de/decut=0.000000)
  Using Numpy's FFT
  ScaLapack parameters: grid=1x1, blocksize=None
  Wavefunction extrapolation:
    Improved wavefunction reuse through dual PAW basis

Occupation numbers: # Zero width

Eigensolver
   Davidson(niter=2)

Densities:
  Coarse grid: 60*48*54 grid
  Fine grid: 120*96*108 grid
  Total Charge: 0.000000

Density mixing:
  Method: difference
  Backend: pulay
  Linear mixing parameter: 0.05
  old densities: 5
  Damping of long wavelength oscillations: 50

Hamiltonian:
  XC and Coulomb potentials evaluated on a 120*96*108 grid
  Using the PBE Exchange-Correlation functional
  External potential:
    NoExternalPotential


XC parameters: PBE with 2 nearest neighbor stencil

Memory estimate:
  Process memory now: 287.94 MiB
  Calculator: 6.52 MiB
    Density: 2.32 MiB
      Arrays: 1.04 MiB
      Localized functions: 0.85 MiB
      Mixer: 0.43 MiB
    Hamiltonian: 0.79 MiB
      Arrays: 0.77 MiB
      XC: 0.00 MiB
      Poisson: 0.00 MiB
      vbar: 0.02 MiB
    Wavefunctions: 3.40 MiB
      Arrays psit_nG: 0.16 MiB
      Eigensolver: 0.12 MiB
      Projections: 0.00 MiB
      Projectors: 0.04 MiB
      PW-descriptor: 3.08 MiB

Total number of cores used: 40
Domain decomposition: 5 x 2 x 4

Number of atoms: 9
Number of atomic orbitals: 18
Number of bands in calculation: 16
Number of valence electrons: 18
Bands to converge: occupied

... initialized

Initializing position-dependent things.

Density initialized from atomic densities
Creating initial wave functions:
  16 bands from LCAO basis set

        .----------------------------------.
       /|                                  |
      / |                                  |
     /  |                                  |
    /   |                                  |
   /    |                                  |
  /     |                                  |
 *      |                                  |
 |      |                                  |
 |      |              H                   |
 |      |            H                     |
 |      |        H    C    H               |
 |      |          C     C                 |
 |      |          H     H                 |
 |      |                                  |
 |      |                                  |
 |      .----------------------------------.
 |     /                                  /
 |    /                                  /
 |   /                                  /
 |  /                                  /
 | /                                  /
 |/                                  /
 *----------------------------------*

Atomic positions and initial magnetic moments

Positions:
   0 C      5.927765    5.927765    6.129619    ( 0.0000,  0.0000,  1.0000)
   1 H      5.927765    5.927765    5.029619    ( 0.0000,  0.0000,  0.0000)
   2 H      5.029619    5.927765    6.764704    ( 0.0000,  0.0000,  0.0000)
   3 C      7.185170    5.927765    7.018738    ( 0.0000,  0.0000,  0.0000)
   4 H      7.185170    5.029619    7.653824    ( 0.0000,  0.0000,  0.0000)
   5 H      7.185170    6.825911    7.653824    ( 0.0000,  0.0000,  0.0000)
   6 C      8.442575    5.927765    6.129619    ( 0.0000,  0.0000,  1.0000)
   7 H      8.442575    5.927765    5.029619    ( 0.0000,  0.0000,  0.0000)
   8 H      9.340721    5.927765    6.764704    ( 0.0000,  0.0000,  0.0000)

Unit cell:
           periodic     x           y           z      points  spacing
  1. axis:    no    14.370340    0.000000    0.000000    60     0.2395
  2. axis:    no     0.000000   11.855530    0.000000    48     0.2470
  3. axis:    no     0.000000    0.000000   12.683443    54     0.2349

  Lengths:  14.370340  11.855530  12.683443
  Angles:   90.000000  90.000000  90.000000

Effective grid spacing dv^(1/3) = 0.2404

     iter     time        total  log10-change:  magmom
                         energy   eigst   dens
iter:   1 13:25:45   -45.993207                   +1.9964
iter:   2 13:25:45   -46.089504   -0.83  -0.63    +1.9989
iter:   3 13:25:46   -43.279956   -0.68  -0.65    +2.0001
iter:   4 13:25:46   -43.388542   -2.32  -0.99    +2.0000
iter:   5 13:25:46   -43.425022   -1.12  -0.97    +2.0000
iter:   6 13:25:47   -42.962463   -1.04  -1.16    +2.0000
iter:   7 13:25:47   -42.974382   -2.28  -1.73    +2.0000
iter:   8 13:25:47   -42.943650   -1.98  -1.64    +2.0000
iter:   9 13:25:48   -42.937019   -2.78  -1.99    +2.0000
iter:  10 13:25:48   -42.939072c  -3.22  -2.49    +2.0000
iter:  11 13:25:49   -42.939762c  -2.74  -2.26    +2.0000
iter:  12 13:25:49   -42.937121c  -3.47  -2.35    +2.0000
iter:  13 13:25:49   -42.937135c  -4.54  -3.07    +2.0000
iter:  14 13:25:50   -42.937165c  -4.99  -3.12    +2.0000
iter:  15 13:25:50   -42.937267c  -4.14  -3.06    +2.0000
iter:  16 13:25:50   -42.937128c  -5.03  -2.94    +2.0000
iter:  17 13:25:51   -42.937111c  -5.36  -3.33    +2.0000
iter:  18 13:25:51   -42.937118c  -6.10  -3.73    +2.0000
iter:  19 13:25:52   -42.937110c  -5.93  -3.52    +2.0000
iter:  20 13:25:52   -42.937111c  -6.03  -3.90    +2.0000
iter:  21 13:25:52   -42.937110c  -6.85  -3.87    +2.0000
iter:  22 13:25:53   -42.937111c  -7.04  -4.10c   +2.0000
iter:  23 13:25:53   -42.937111c  -7.53c -4.00    +2.0000
iter:  24 13:25:53   -42.937110c  -6.81  -4.13c   +2.0000
iter:  25 13:25:54   -42.937110c  -7.97c -4.93c   +2.0000

Converged after 25 iterations.

Dipole moment: (-0.000000, -0.000000, 0.084471) |e|*Ang

Total magnetic moment: (0.000000, 0.000000, 2.000000)
Local magnetic moments:
   0 C  ( 0.000000,  0.000000,  0.298850)
   1 H  ( 0.000000,  0.000000, -0.008713)
   2 H  ( 0.000000,  0.000000, -0.008085)
   3 C  ( 0.000000,  0.000000, -0.020938)
   4 H  ( 0.000000,  0.000000,  0.032201)
   5 H  ( 0.000000,  0.000000,  0.032201)
   6 C  ( 0.000000,  0.000000,  0.298850)
   7 H  ( 0.000000,  0.000000, -0.008713)
   8 H  ( 0.000000,  0.000000, -0.008085)

Energy contributions relative to reference atoms: (reference = -3157.825320)

Kinetic:        +27.359284
Potential:      -31.013092
External:        +0.000000
XC:             -39.401165
Entropy (-ST):   +0.000000
Local:           +0.117863
SIC:             +0.000000
--------------------------
Free energy:    -42.937110
Extrapolated:   -42.937110

Spin contamination: 0.105310 electrons
                   Up                     Down
 Band  Eigenvalues  Occupancy  Eigenvalues  Occupancy
    0    -19.30166    1.00000    -18.83548    1.00000
    1    -16.25456    1.00000    -15.34726    1.00000
    2    -14.17499    1.00000    -13.65816    1.00000
    3    -10.78165    1.00000    -10.51954    1.00000
    4    -10.49569    1.00000    -10.07618    1.00000
    5    -10.32961    1.00000    -10.04283    1.00000
    6     -8.90733    1.00000     -8.68470    1.00000
    7     -7.97709    1.00000     -7.71803    1.00000
    8     -4.79304    1.00000     -2.34434    0.00000
    9     -4.37516    1.00000     -2.29291    0.00000
   10     -0.50416    0.00000     -0.34136    0.00000
   11      0.14222    0.00000      0.28742    0.00000
   12      0.16250    0.00000      0.30884    0.00000
   13      0.40036    0.00000      0.49122    0.00000
   14      0.48718    0.00000      0.74258    0.00000
   15      1.12669    0.00000      1.20517    0.00000

Fermi level: -3.35975

Gap: 2.031 eV
Transition (v -> c):
  (s=0, k=0, n=9, [0.00, 0.00, 0.00]) -> (s=1, k=0, n=8, [0.00, 0.00, 0.00])
No difference between direct/indirect transitions
Writing to C3H6.gpw (mode='all')

Timing:                              incl.     excl.
-----------------------------------------------------------
Hamiltonian:                         0.137     0.006   0.1% |
 Atomic:                             0.000     0.000   0.0% |
  XC Correction:                     0.000     0.000   0.0% |
 Calculate atomic Hamiltonians:      0.007     0.007   0.1% |
 Communicate:                        0.036     0.036   0.4% |
 Initialize Hamiltonian:             0.000     0.000   0.0% |
 Poisson:                            0.000     0.000   0.0% |
 XC 3D grid:                         0.088     0.088   0.9% |
LCAO initialization:                 0.123     0.014   0.1% |
 LCAO eigensolver:                   0.006     0.000   0.0% |
  Calculate projections:             0.000     0.000   0.0% |
  DenseAtomicCorrection:             0.000     0.000   0.0% |
  Distribute overlap matrix:         0.004     0.004   0.0% |
  Orbital Layouts:                   0.001     0.001   0.0% |
  Potential matrix:                  0.000     0.000   0.0% |
 LCAO to grid:                       0.094     0.094   0.9% |
 Set positions (LCAO WFS):           0.009     0.005   0.0% |
  Basic WFS set positions:           0.001     0.001   0.0% |
  Basis functions set positions:     0.000     0.000   0.0% |
  P tci:                             0.000     0.000   0.0% |
  ST tci:                            0.001     0.001   0.0% |
  mktci:                             0.002     0.002   0.0% |
PWDescriptor:                        0.012     0.012   0.1% |
SCF-cycle:                           8.935     0.017   0.2% |
 Davidson:                           1.962     0.183   1.8% ||
  Apply H:                           0.413     0.411   4.1% |-|
   HMM T:                            0.002     0.002   0.0% |
  Subspace diag:                     0.446     0.003   0.0% |
   calc_h_matrix:                    0.420     0.010   0.1% |
    Apply H:                         0.410     0.408   4.1% |-|
     HMM T:                          0.002     0.002   0.0% |
   diagonalize:                      0.014     0.014   0.1% |
   rotate_psi:                       0.008     0.008   0.1% |
  calc. matrices:                    0.878     0.065   0.7% |
   Apply H:                          0.813     0.809   8.1% |--|
    HMM T:                           0.003     0.003   0.0% |
  diagonalize:                       0.030     0.030   0.3% |
  rotate_psi:                        0.013     0.013   0.1% |
 Density:                            3.828     0.000   0.0% |
  Atomic density matrices:           0.023     0.023   0.2% |
  Mix:                               1.736     1.736  17.3% |------|
  Multipole moments:                 0.004     0.004   0.0% |
  Pseudo density:                    2.064     0.283   2.8% ||
   Symmetrize density:               1.781     1.781  17.8% |------|
 Hamiltonian:                        3.126     0.108   1.1% |
  Atomic:                            0.005     0.005   0.1% |
   XC Correction:                    0.000     0.000   0.0% |
  Calculate atomic Hamiltonians:     0.168     0.168   1.7% ||
  Communicate:                       0.841     0.841   8.4% |--|
  Poisson:                           0.004     0.004   0.0% |
  XC 3D grid:                        2.000     2.000  19.9% |-------|
 Orthonormalize:                     0.002     0.000   0.0% |
  calc_s_matrix:                     0.000     0.000   0.0% |
  inverse-cholesky:                  0.000     0.000   0.0% |
  projections:                       0.001     0.001   0.0% |
  rotate_psi_s:                      0.000     0.000   0.0% |
Set symmetry:                        0.001     0.001   0.0% |
Other:                               0.821     0.821   8.2% |--|
-----------------------------------------------------------
Total:                                        10.031 100.0%

Date: Tue Mar 10 13:25:54 2026
